# vtk DataFile Version 3.0
Optimized Mesh with AI Predicted Sizes
ASCII
DATASET UNSTRUCTURED_GRID

POINTS 4384 float
14.482231 -1.832424 1.000000
14.482231 -1.832424 0.000000
31.719784 -1.946205 1.000000
31.719784 -1.946205 0.000000
0.343616 -4.081053 1.000000
0.343616 -4.081053 0.000000
0.343616 5.800398 1.000000
0.343616 5.800398 0.000000
35.466202 -4.081053 0.000000
35.466202 -4.081053 1.000000
35.466202 5.800398 1.000000
35.466202 5.800398 0.000000
14.477877 -1.745169 1.000000
14.464855 -1.658781 1.000000
14.443297 -1.574119 1.000000
14.413418 -1.492024 1.000000
14.375512 -1.413312 1.000000
14.329958 -1.338766 1.000000
14.277207 -1.269125 1.000000
14.217785 -1.205083 1.000000
14.152281 -1.147276 1.000000
14.081347 -1.096278 1.000000
14.005689 -1.052596 1.000000
13.926056 -1.016665 1.000000
13.843242 -0.988841 1.000000
13.758068 -0.969401 1.000000
13.671383 -0.958537 1.000000
13.584046 -0.956359 1.000000
13.496927 -0.962888 1.000000
13.410891 -0.978059 1.000000
13.326793 -1.001720 1.000000
13.245468 -1.033638 1.000000
13.167726 -1.073494 1.000000
13.094337 -1.120893 1.000000
13.026034 -1.175363 1.000000
12.963493 -1.236363 1.000000
12.907337 -1.303288 1.000000
12.858124 -1.375471 1.000000
12.816341 -1.452196 1.000000
12.782407 -1.532699 1.000000
12.756656 -1.616181 1.000000
12.739345 -1.701813 1.000000
12.730646 -1.788742 1.000000
12.730646 -1.876106 1.000000
12.739345 -1.963035 1.000000
12.756656 -2.048667 1.000000
12.782407 -2.132149 1.000000
12.816341 -2.212652 1.000000
12.858124 -2.289377 1.000000
12.907337 -2.361560 1.000000
12.963493 -2.428484 1.000000
13.026034 -2.489485 1.000000
13.094337 -2.543955 1.000000
13.167726 -2.591354 1.000000
13.245468 -2.631210 1.000000
13.326793 -2.663128 1.000000
13.410891 -2.686790 1.000000
13.496927 -2.701960 1.000000
13.584046 -2.708489 1.000000
13.671383 -2.706311 1.000000
13.758068 -2.695447 1.000000
13.843242 -2.676007 1.000000
13.926056 -2.648183 1.000000
14.005689 -2.612252 1.000000
14.081347 -2.568570 1.000000
14.152281 -2.517572 1.000000
14.217785 -2.459765 1.000000
14.277207 -2.395723 1.000000
14.329958 -2.326082 1.000000
14.375512 -2.251536 1.000000
14.413418 -2.172824 1.000000
14.443297 -2.090729 1.000000
14.464855 -2.006067 1.000000
14.477877 -1.919679 1.000000
14.482231 -1.832424 0.083333
14.482231 -1.832424 0.166667
14.482231 -1.832424 0.250000
14.482231 -1.832424 0.333333
14.482231 -1.832424 0.416667
14.482231 -1.832424 0.500000
14.482231 -1.832424 0.583333
14.482231 -1.832424 0.666667
14.482231 -1.832424 0.750000
14.482231 -1.832424 0.833333
14.482231 -1.832424 0.916667
14.477877 -1.745169 0.000000
14.464855 -1.658781 0.000000
14.443297 -1.574119 0.000000
14.413418 -1.492024 0.000000
14.375512 -1.413312 0.000000
14.329958 -1.338766 0.000000
14.277207 -1.269125 0.000000
14.217785 -1.205083 0.000000
14.152281 -1.147276 0.000000
14.081347 -1.096278 0.000000
14.005689 -1.052596 0.000000
13.926056 -1.016665 0.000000
13.843242 -0.988841 0.000000
13.758068 -0.969401 0.000000
13.671383 -0.958537 0.000000
13.584046 -0.956359 0.000000
13.496927 -0.962888 0.000000
13.410891 -0.978059 0.000000
13.326793 -1.001720 0.000000
13.245468 -1.033638 0.000000
13.167726 -1.073494 0.000000
13.094337 -1.120893 0.000000
13.026034 -1.175363 0.000000
12.963493 -1.236363 0.000000
12.907337 -1.303288 0.000000
12.858124 -1.375471 0.000000
12.816341 -1.452196 0.000000
12.782407 -1.532699 0.000000
12.756656 -1.616181 0.000000
12.739345 -1.701813 0.000000
12.730646 -1.788742 0.000000
12.730646 -1.876106 0.000000
12.739345 -1.963035 0.000000
12.756656 -2.048667 0.000000
12.782407 -2.132149 0.000000
12.816341 -2.212652 0.000000
12.858124 -2.289377 0.000000
12.907337 -2.361560 0.000000
12.963493 -2.428484 0.000000
13.026034 -2.489485 0.000000
13.094337 -2.543955 0.000000
13.167726 -2.591354 0.000000
13.245468 -2.631210 0.000000
13.326793 -2.663128 0.000000
13.410891 -2.686790 0.000000
13.496927 -2.701960 0.000000
13.584046 -2.708489 0.000000
13.671383 -2.706311 0.000000
13.758068 -2.695447 0.000000
13.843242 -2.676007 0.000000
13.926056 -2.648183 0.000000
14.005689 -2.612252 0.000000
14.081347 -2.568570 0.000000
14.152281 -2.517572 0.000000
14.217785 -2.459765 0.000000
14.277207 -2.395723 0.000000
14.329958 -2.326082 0.000000
14.375512 -2.251536 0.000000
14.413418 -2.172824 0.000000
14.443297 -2.090729 0.000000
14.464855 -2.006067 0.000000
14.477877 -1.919679 0.000000
31.713791 -1.826120 1.000000
31.695871 -1.707229 1.000000
31.666203 -1.590713 1.000000
31.625080 -1.477730 1.000000
31.572912 -1.369403 1.000000
31.510218 -1.266808 1.000000
31.437620 -1.170965 1.000000
31.355841 -1.082827 1.000000
31.265690 -1.003270 1.000000
31.168068 -0.933084 1.000000
31.063942 -0.872967 1.000000
30.954348 -0.823516 1.000000
30.840374 -0.785223 1.000000
30.723154 -0.758469 1.000000
30.603853 -0.743518 1.000000
30.483658 -0.740521 1.000000
30.363760 -0.749506 1.000000
30.245352 -0.770384 1.000000
30.129612 -0.802949 1.000000
30.017689 -0.846875 1.000000
29.910696 -0.901727 1.000000
29.809696 -0.966960 1.000000
29.715693 -1.041925 1.000000
29.629622 -1.125877 1.000000
29.552336 -1.217981 1.000000
29.484606 -1.317323 1.000000
29.427103 -1.422916 1.000000
29.380400 -1.533709 1.000000
29.344961 -1.648601 1.000000
29.321136 -1.766451 1.000000
29.309166 -1.886088 1.000000
29.309166 -2.006322 1.000000
29.321136 -2.125959 1.000000
29.344961 -2.243809 1.000000
29.380400 -2.358701 1.000000
29.427103 -2.469494 1.000000
29.484606 -2.575087 1.000000
29.552336 -2.674429 1.000000
29.629622 -2.766533 1.000000
29.715693 -2.850485 1.000000
29.809696 -2.925450 1.000000
29.910696 -2.990683 1.000000
30.017689 -3.045535 1.000000
30.129612 -3.089461 1.000000
30.245352 -3.122025 1.000000
30.363760 -3.142904 1.000000
30.483658 -3.151889 1.000000
30.603853 -3.148892 1.000000
30.723154 -3.133941 1.000000
30.840374 -3.107187 1.000000
30.954348 -3.068894 1.000000
31.063942 -3.019443 1.000000
31.168068 -2.959326 1.000000
31.265690 -2.889140 1.000000
31.355841 -2.809583 1.000000
31.437620 -2.721445 1.000000
31.510218 -2.625602 1.000000
31.572912 -2.523008 1.000000
31.625080 -2.414680 1.000000
31.666203 -2.301697 1.000000
31.695871 -2.185181 1.000000
31.713791 -2.066290 1.000000
31.719784 -1.946205 0.111111
31.719784 -1.946205 0.222222
31.719784 -1.946205 0.333333
31.719784 -1.946205 0.444444
31.719784 -1.946205 0.555556
31.719784 -1.946205 0.666667
31.719784 -1.946205 0.777778
31.719784 -1.946205 0.888889
31.713791 -1.826120 0.000000
31.695871 -1.707229 0.000000
31.666203 -1.590713 0.000000
31.625080 -1.477730 0.000000
31.572912 -1.369403 0.000000
31.510218 -1.266808 0.000000
31.437620 -1.170965 0.000000
31.355841 -1.082827 0.000000
31.265690 -1.003270 0.000000
31.168068 -0.933084 0.000000
31.063942 -0.872967 0.000000
30.954348 -0.823516 0.000000
30.840374 -0.785223 0.000000
30.723154 -0.758469 0.000000
30.603853 -0.743518 0.000000
30.483658 -0.740521 0.000000
30.363760 -0.749506 0.000000
30.245352 -0.770384 0.000000
30.129612 -0.802949 0.000000
30.017689 -0.846875 0.000000
29.910696 -0.901727 0.000000
29.809696 -0.966960 0.000000
29.715693 -1.041925 0.000000
29.629622 -1.125877 0.000000
29.552336 -1.217981 0.000000
29.484606 -1.317323 0.000000
29.427103 -1.422916 0.000000
29.380400 -1.533709 0.000000
29.344961 -1.648601 0.000000
29.321136 -1.766451 0.000000
29.309166 -1.886088 0.000000
29.309166 -2.006322 0.000000
29.321136 -2.125959 0.000000
29.344961 -2.243809 0.000000
29.380400 -2.358701 0.000000
29.427103 -2.469494 0.000000
29.484606 -2.575087 0.000000
29.552336 -2.674429 0.000000
29.629622 -2.766533 0.000000
29.715693 -2.850485 0.000000
29.809696 -2.925450 0.000000
29.910696 -2.990683 0.000000
30.017689 -3.045535 0.000000
30.129612 -3.089461 0.000000
30.245352 -3.122025 0.000000
30.363760 -3.142904 0.000000
30.483658 -3.151889 0.000000
30.603853 -3.148892 0.000000
30.723154 -3.133941 0.000000
30.840374 -3.107187 0.000000
30.954348 -3.068894 0.000000
31.063942 -3.019443 0.000000
31.168068 -2.959326 0.000000
31.265690 -2.889140 0.000000
31.355841 -2.809583 0.000000
31.437620 -2.721445 0.000000
31.510218 -2.625602 0.000000
31.572912 -2.523008 0.000000
31.625080 -2.414680 0.000000
31.666203 -2.301697 0.000000
31.695871 -2.185181 0.000000
31.713791 -2.066290 0.000000
0.343616 -1.978152 1.000000
0.343616 0.352790 1.000000
0.343616 2.936503 1.000000
0.343616 -1.978152 0.000000
0.343616 0.352790 0.000000
0.343616 2.936503 0.000000
2.366347 -4.081053 0.000000
4.296115 -4.081053 0.000000
6.137192 -4.081053 0.000000
7.893654 -4.081053 0.000000
9.569390 -4.081053 0.000000
11.168110 -4.081053 0.000000
12.693354 -4.081053 0.000000
14.148499 -4.081053 0.000000
15.536766 -4.081053 0.000000
16.861229 -4.081053 0.000000
18.124821 -4.081053 0.000000
19.330338 -4.081053 0.000000
20.480450 -4.081053 0.000000
21.577705 -4.081053 0.000000
22.624531 -4.081053 0.000000
23.623243 -4.081053 0.000000
24.576057 -4.081053 0.000000
25.485079 -4.081053 0.000000
26.352324 -4.081053 0.000000
27.179710 -4.081053 0.000000
27.969070 -4.081053 0.000000
28.722153 -4.081053 0.000000
29.440622 -4.081053 0.000000
30.126072 -4.081053 0.000000
30.780020 -4.081053 0.000000
31.403912 -4.081053 0.000000
31.999130 -4.081053 0.000000
32.566994 -4.081053 0.000000
33.108757 -4.081053 0.000000
33.625622 -4.081053 0.000000
34.118732 -4.081053 0.000000
34.589176 -4.081053 0.000000
35.038002 -4.081053 0.000000
35.466202 -4.081053 0.333333
35.466202 -4.081053 0.666667
2.366347 -4.081053 1.000000
4.296115 -4.081053 1.000000
6.137192 -4.081053 1.000000
7.893654 -4.081053 1.000000
9.569390 -4.081053 1.000000
11.168110 -4.081053 1.000000
12.693354 -4.081053 1.000000
14.148499 -4.081053 1.000000
15.536766 -4.081053 1.000000
16.861229 -4.081053 1.000000
18.124821 -4.081053 1.000000
19.330338 -4.081053 1.000000
20.480450 -4.081053 1.000000
21.577705 -4.081053 1.000000
22.624531 -4.081053 1.000000
23.623243 -4.081053 1.000000
24.576057 -4.081053 1.000000
25.485079 -4.081053 1.000000
26.352324 -4.081053 1.000000
27.179710 -4.081053 1.000000
27.969070 -4.081053 1.000000
[...]
POINT_DATA 4384
SCALARS mesh_size float 1
LOOKUP_TABLE default
-0.748164
-0.752467
-0.744230
-0.749589
-0.677441
-0.781500
-0.124280
-0.124280
-0.749610
-0.743773
-0.523968
-0.486664
-0.747484
-0.746849
-0.746026
-0.745262
-0.744363
-0.743351
-0.742391
-0.741281
-0.740128
-0.739007
-0.737853
-0.736915
-0.736078
-0.735454
-0.735067
-0.735159
-0.735365
-0.735834
-0.736632
-0.737650
-0.738701
-0.739886
-0.741079
-0.742242
-0.743319
-0.744454
-0.745490
-0.746375
-0.747060
-0.747602
-0.748374
-0.748739
-0.749307
-0.749754
-0.749989
-0.750322
-0.750507
-0.750748
-0.750603
-0.750959
-0.751169
-0.751174
-0.751364
-0.748861
-0.751369
-0.751463
-0.750850
-0.751392
-0.751389
-0.750348
-0.751240
-0.751084
-0.751027
-0.750902
-0.750589
-0.750567
-0.750349
-0.750100
-0.749813
-0.749437
-0.749024
-0.748606
-0.752799
-0.752551
-0.752460
-0.752173
-0.751954
-0.751527
-0.751046
-0.750608
-0.750168
-0.749453
-0.748441
-0.752419
-0.752369
-0.752317
-0.752285
-0.752259
-0.751984
-0.752073
-0.751965
-0.751890
-0.751703
-0.751690
-0.751675
-0.751572
-0.751436
-0.751466
-0.751399
-0.751615
-0.751684
-0.751780
-0.751897
-0.751948
-0.752140
-0.751968
-0.752322
-0.752364
-0.752379
-0.752138
-0.752183
-0.752467
-0.752563
-0.752605
-0.752649
-0.752709
-0.752954
-0.752955
-0.752941
-0.752929
-0.752859
-0.752577
-0.752811
-0.752980
-0.752867
-0.752931
-0.750804
-0.752821
-0.752685
-0.752227
-0.752847
-0.752927
-0.751983
-0.752658
-0.752621
-0.752660
-0.752689
-0.752668
-0.752639
-0.752861
-0.752775
-0.752630
-0.752577
-0.752542
-0.752632
-0.742956
-0.741714
-0.740329
-0.738672
-0.736839
-0.734772
-0.732613
-0.730343
-0.728179
-0.725975
-0.724005
-0.722215
-0.720680
-0.719585
-0.718976
-0.718949
-0.719436
-0.720384
-0.721779
-0.723487
-0.725567
-0.727823
-0.730069
-0.732462
-0.734791
-0.736933
-0.738913
-0.740677
-0.742156
-0.743465
-0.744252
-0.745683
-0.746430
-0.747235
-0.747852
-0.748356
-0.748786
-0.749128
-0.749491
-0.749788
-0.749989
-0.750088
-0.746905
-0.750367
-0.750249
-0.750138
-0.750322
-0.750381
-0.750316
-0.750258
-0.750102
-0.749959
-0.747744
-0.749490
-0.749182
-0.748137
-0.748463
-0.747972
-0.747409
-0.746790
-0.746039
-0.745190
-0.749658
-0.749192
-0.748666
-0.748094
-0.747127
-0.746614
-0.745793
-0.744657
-0.749306
-0.748896
-0.748478
-0.748097
-0.747680
-0.747227
-0.746766
-0.746278
-0.745747
-0.745221
-0.744797
-0.744424
-0.744144
-0.743913
-0.743778
-0.743874
-0.744041
-0.744271
-0.744581
-0.744994
-0.745489
-0.746065
-0.746520
-0.747073
-0.747567
-0.747999
-0.748744
-0.749180
-0.749303
-0.749945
-0.750230
-0.750330
-0.750749
-0.751050
-0.751150
-0.751278
-0.751404
-0.751618
-0.751813
-0.751773
-0.751699
-0.751803
-0.751833
-0.751917
-0.751805
-0.751778
-0.751885
-0.751899
-0.751767
-0.751730
-0.751654
-0.751592
-0.751550
-0.751436
-0.751284
-0.751160
-0.750995
-0.750755
-0.750566
-0.750357
-0.749933
-0.749960
-0.667623
-0.124280
-0.124280
-0.791139
-0.732659
-0.124280
-0.778904
-0.784350
-0.761010
-0.761196
-0.781751
-0.777603
-0.773714
-0.751974
-0.764666
-0.755772
-0.769286
-0.756526
-0.759814
-0.765507
-0.755491
-0.764698
-0.756625
-0.764581
-0.769871
-0.768211
-0.764672
-0.766464
-0.750781
-0.748927
-0.754357
-0.755173
-0.750292
-0.754624
-0.755191
-0.753268
-0.750186
-0.749727
-0.749784
-0.745336
-0.744883
-0.735487
-0.720730
-0.741826
-0.742552
-0.717587
-0.743514
-0.740043
-0.749133
-0.752351
-0.752336
-0.750496
-0.750423
-0.750927
-0.751670
-0.752459
-0.754063
-0.752835
-0.751290
-0.752465
-0.751224
-0.753442
-0.753274
-0.753659
-0.751354
-0.753046
-0.758894
-0.753135
-0.753328
-0.757190
-0.755515
-0.750660
-0.760796
-0.747292
-0.124280
-0.124280
-0.124280
-0.124280
-0.124280
-0.124280
-0.124280
-0.124280
-0.124280
-0.124280
-0.124280
-0.124280
-0.124280
-0.124280
-0.124280
-0.124280
-0.124280
-0.516051
-0.523326
-0.516550
-0.759309
-0.762892
-0.758934
-0.750775
-0.748085
-0.736784
-0.721590
-0.693773
-0.661816
-0.632703
-0.590335
-0.566992
-0.546974
-0.536581
-0.532906
-0.536825
-0.124280
-0.124280
-0.124280
-0.124280
-0.124280
-0.124280
-0.124280
-0.124280
-0.124280
-0.124280
-0.124280
-0.124280
-0.124280
-0.124280
-0.124280
-0.124280
-0.124280
-0.608818
-0.609620
-0.583023
-0.532055
-0.745329
-0.744330
-0.743871
-0.743099
-0.742770
-0.740751
-0.737523
-0.732048
-0.705069
-0.676237
-0.645692
-0.625248
-0.603232
-0.596362
-0.579881
-0.502433
-0.750332
-0.752563
-0.751744
-0.739813
-0.750326
-0.746495
-0.753033
-0.751891
-0.752141
-0.750379
-0.744985
-0.750369
-0.747805
-0.752571
-0.744984
-0.751933
-0.741637
-0.738777
-0.752994
-0.751923
-0.752525
-0.750953
-0.738260
-0.751860
-0.753193
-0.751053
-0.749753
-0.752333
-0.752860
-0.742220
-0.751842
-0.752526
-0.752953
-0.749599
-0.750230
-0.750615
-0.752011
-0.752465
-0.750960
-0.752415
-0.749529
-0.752340
-0.748891
-0.751595
-0.746360
-0.751016
-0.739771
-0.746741
-0.750712
-0.749665
-0.743281
-0.752097
-0.752407
-0.752924
-0.749011
-0.747566
-0.752641
-0.752735
-0.747136
-0.747899
-0.747459
-0.748411
-0.748046
-0.749148
-0.748765
-0.749648
-0.749372
-0.750194
-0.749592
-0.750448
-0.750322
-0.749336
-0.750080
-0.749236
-0.749691
-0.748852
-0.749420
-0.748321
-0.749156
-0.748285
-0.749027
-0.748024
-0.748810
-0.747639
-0.748507
-0.747835
-0.748625
-0.747447
-0.748605
-0.747595
-0.748766
-0.747679
-0.748601
-0.748028
-0.748947
-0.748278
-0.748970
-0.748755
-0.749536
-0.749061
-0.749723
-0.748941
-0.750234
-0.748955
-0.750287
-0.749463
-0.750468
-0.750221
-0.750826
-0.750378
-0.751068
-0.750384
-0.751599
-0.751238
-0.751256
-0.751237
-0.751641
-0.751726
-0.752030
-0.751351
-0.751886
-0.751121
-0.752276
-0.751780
-0.750989
-0.750728
-0.752190
-0.751511
-0.751100
-0.750551
-0.750407
-0.752115
-0.751272
-0.746745
-0.751563
-0.750390
-0.750990
-0.751592
-0.750858
-0.751087
-0.747136
-0.749797
-0.747177
-0.750760
-0.750929
-0.749927
-0.751875
-0.751652
-0.751988
-0.752093
-0.748497
-0.748115
-0.752291
-0.747012
-0.751639
-0.747939
-0.750807
-0.746371
-0.750546
-0.749847
-0.749304
-0.752191
-0.752027
-0.748438
-0.751117
-0.752126
-0.751176
-0.750815
-0.752501
-0.750105
-0.751216
-0.751945
-0.752093
-0.752176
-0.750811
-0.751184
-0.751826
-0.749644
-0.751068
-0.751762
-0.752673
-0.751832
-0.752650
-0.752764
-0.751728
-0.751736
-0.752259
-0.752777
-0.751465
-0.751184
-0.751847
-0.747712
-0.751263
-0.746429
-0.751504
-0.751640
-0.749957
-0.749719
-0.749470
-0.746433
-0.749420
-0.749249
-0.747853
-0.751798
-0.750076
-0.750822
-0.747056
-0.750176
-0.746435
-0.751597
-0.751687
-0.751206
-0.750908
-0.749956
-0.752555
-0.746681
-0.748110
-0.747294
-0.751792
-0.750247
-0.748180
-0.751219
-0.751345
-0.750913
-0.751578
-0.752225
-0.752340
-0.751565
-0.751603
-0.751606
-0.751995
-0.752598
-0.751303
-0.751542
-0.749417
-0.751292
-0.750918
-0.749550
-0.751401
-0.751615
-0.751566
-0.751819
-0.752182
-0.752570
-0.752064
-0.752387
-0.752660
-0.750482
-0.750795
-0.751515
-0.751747
-0.749958
-0.752535
-0.751927
-0.752275
-0.752109
-0.751152
-0.749916
-0.751346
-0.752224
-0.752239
-0.750387
-0.749767
-0.750171
-0.752210
-0.749299
-0.749948
-0.750600
-0.751665
-0.750969
-0.751210
-0.751528
-0.748327
-0.748617
-0.749065
-0.752799
-0.752681
-0.751850
-0.750381
-0.750649
-0.750237
-0.750439
-0.751000
-0.749946
-0.748806
-0.751934
-0.749858
-0.749912
-0.746649
-0.752464
-0.752868
-0.752766
-0.752899
-0.752435
-0.753036
-0.752375
-0.752533
-0.752488
-0.752677
-0.752695
-0.752476
-0.751779
-0.751861
-0.752518
-0.752604
-0.752695
-0.750831
-0.751641
-0.752340
-0.752790
-0.753109
-0.751009
-0.752280
-0.750641
-0.752638
-0.751696
-0.752283
-0.752621
-0.750855
-0.752636
-0.751499
-0.752710
-0.752821
-0.752052
-0.752513
-0.752184
-0.752579
-0.752912
-0.753205
-0.752532
-0.751392
-0.752444
-0.752666
-0.749840
-0.751568
-0.752232
-0.753029
-0.752004
-0.752308
-0.752406
-0.751916
-0.751380
-0.751917
-0.751927
-0.752331
-0.750238
-0.752121
-0.752396
-0.753096
-0.752318
-0.751969
-0.752145
-0.752168
-0.752906
-0.752698
-0.752236
-0.752250
-0.751522
-0.752041
-0.752209
-0.752420
-0.752611
-0.753051
-0.752557
-0.753041
-0.751732
-0.750620
-0.752619
-0.752604
-0.750585
-0.751227
-0.747439
-0.751396
-0.751449
-0.751429
-0.750973
-0.749862
-0.751531
-0.751147
-0.748455
-0.745336
-0.748866
-0.746379
-0.751351
-0.750053
-0.751550
-0.751184
-0.751711
-0.751121
-0.751217
-0.749037
-0.751859
-0.748010
-0.748856
-0.751080
-0.751829
-0.751453
-0.750284
-0.751261
-0.749909
-0.751149
-0.750719
-0.751119
-0.750590
-0.750777
-0.751186
-0.750172
-0.751058
-0.751381
-0.750943
-0.750804
-0.750415
-0.750821
-0.749366
-0.750999
-0.750928
-0.750654
-0.750690
-0.750124
-0.750778
-0.749701
-0.750730
-0.750783
-0.751142
-0.750228
-0.750335
-0.751386
-0.751501
-0.750675
-0.746657
-0.749879
-0.750157
-0.749804
-0.749842
-0.750074
-0.750393
-0.749441
-0.750203
-0.748914
-0.748611
-0.749479
-0.748428
-0.749576
-0.748036
-0.747556
-0.749283
-0.747785
-0.748597
-0.746709
-0.746132
-0.745457
-0.746434
-0.750491
-0.750395
-0.751744
-0.751663
-0.751975
-0.751326
-0.750953
-0.750158
-0.750727
-0.752119
-0.748488
-0.751843
-0.752375
-0.750322
-0.750069
-0.748641
-0.751387
-0.749837
-0.750311
-0.751213
-0.751050
-0.750900
-0.749123
-0.748149
-0.747682
-0.745866
-0.747274
-0.745203
-0.746722
-0.745008
-0.746264
-0.744063
-0.743226
-0.745936
-0.743561
-0.745508
-0.743485
-0.745106
-0.743347
-0.741560
-0.745084
-0.743065
-0.745095
-0.743332
-0.745295
-0.743686
-0.741066
-0.745248
-0.743932
-0.745497
-0.744124
-0.746019
-0.744736
-0.746438
-0.745272
-0.746903
-0.745858
-0.747512
-0.746411
-0.748617
-0.748289
-0.747468
-0.746656
-0.746687
-0.749726
-0.751414
-0.748837
-0.751329
-0.751410
-0.750973
-0.751303
-0.750871
-0.752387
-0.751313
-0.752147
-0.747483
-0.752145
-0.750228
-0.752151
-0.752273
-0.751826
-0.752072
-0.752519
-0.752075
-0.752937
-0.752674
-0.752805
-0.752616
-0.752328
-0.752771
-0.752152
-0.752335
-0.751552
-0.752392
-0.751762
-0.752416
-0.751585
-0.751600
-0.752084
-0.751127
-0.751831
-0.751102
-0.751230
-0.751290
-0.751220
-0.750856
-0.751114
-0.750860
-0.750933
-0.750591
-0.751273
-0.750404
-0.750473
-0.751220
-0.750225
-0.751352
-0.750765
-0.751092
-0.750606
-0.750631
-0.750579
-0.750697
-0.750721
-0.751084
-0.750847
-0.751017
-0.750932
-0.751242
-0.751456
-0.752435
-0.752892
-0.750204
-0.750660
-0.751373
-0.750234
-0.749725
-0.749989
-0.751951
-0.749945
-0.749947
-0.751805
-0.749708
-0.749216
-0.750195
-0.749347
-0.751017
-0.750602
-0.750833
-0.750137
-0.751204
-0.750869
-0.750997
-0.751738
-0.751311
-0.751769
-0.751281
-0.751752
-0.751707
-0.751946
-0.751915
-0.751943
-0.752402
-0.750274
-0.752833
-0.750989
-0.748944
-0.743977
-0.739274
-0.751858
-0.751899
-0.738069
-0.744228
-0.746117
-0.738855
-0.740577
-0.752109
-0.751744
-0.742373
-0.752546
-0.749876
-0.749352
-0.746919
-0.746499
-0.749406
-0.751566
-0.749973
-0.746473
-0.747408
-0.747534
-0.748698
-0.751803
-0.752291
-0.752061
-0.752150
-0.751613
-0.751345
-0.752564
-0.748845
-0.745770
-0.750231
-0.751841
-0.750812
-0.751011
-0.751181
-0.747588
-0.747572
-0.751165
-0.751853
-0.747578
-0.752024
-0.748111
-0.748867
-0.752666
-0.751686
-0.753002
-0.746053
-0.746872
-0.751512
-0.744185
-0.752375
-0.743156
-0.744744
-0.741316
-0.752556
-0.740487
-0.752952
-0.752580
-0.742719
-0.750311
-0.741897
-0.738531
-0.747398
-0.747003
-0.741359
-0.748741
-0.750658
-0.752696
-0.741069
-0.749093
-0.738136
-0.746925
-0.741322
-0.752713
-0.741691
-0.750492
-0.750863
-0.742181
-0.751249
-0.742693
-0.743370
-0.744079
-0.744755
-0.745441
-0.752646
-0.752957
-0.752091
-0.752166
-0.752128
-0.752572
-0.750927
-0.752505
-0.751974
-0.752452
-0.751883
-0.747452
-0.752654
-0.752014
-0.752882
-0.751193
-0.751359
-0.749516
-0.752970
-0.750594
-0.752939
-0.752815
-0.751528
-0.752500
-0.752476
-0.752955
-0.752308
-0.751975
-0.752675
-0.749539
-0.752872
-0.752184
-0.752112
-0.748900
-0.752391
-0.751675
-0.752364
-0.752863
-0.751479
-0.752914
-0.752446
-0.753274
-0.747964
-0.752343
-0.752226
-0.752656
-0.752786
-0.751848
-0.752353
-0.751583
-0.747886
-0.750986
-0.752763
-0.752040
-0.752744
-0.752436
-0.753100
-0.752215
-0.751689
-0.752427
-0.752267
-0.750204
-0.751979
-0.753031
-0.752655
-0.752056
-0.753108
-0.752353
-0.752332
-0.751770
-0.751962
-0.753202
-0.751938
-0.748518
-0.751923
-0.752635
-0.751958
-0.751760
-0.752569
-0.751641
-0.751312
-0.747475
-0.747873
-0.722867
-0.746192
-0.747220
-0.748040
-0.744007
-0.748267
-0.746654
-0.724601
-0.745901
-0.749561
-0.744342
-0.749141
-0.749519
-0.744869
-0.749588
-0.729729
-0.737358
-0.749697
-0.738934
-0.751896
-0.743018
-0.749862
-0.733843
-0.750887
-0.724744
-0.751074
-0.751724
-0.750360
-0.743300
-0.748888
-0.747783
-0.746961
-0.751749
-0.749446
-0.745057
-0.747199
-0.728036
-0.743815
-0.751354
-0.750922
-0.750463
-0.733584
-0.747209
-0.743057
-0.740570
-0.748665
-0.746486
-0.745619
-0.749072
-0.748658
-0.745804
-0.749989
-0.742988
-0.746356
-0.747106
-0.747920
-0.748375
-0.748858
-0.746504
-0.749106
-0.749480
-0.748232
-0.745735
-0.750329
-0.749221
-0.750351
-0.747830
-0.748567
-0.744999
-0.750363
-0.750589
-0.749542
-0.747303
-0.748092
-0.749102
-0.751047
-0.746352
-0.749163
-0.745570
-0.748696
-0.745139
-0.750223
-0.750415
-0.750551
-0.749761
-0.750303
-0.748413
-0.746197
-0.747577
-0.745562
-0.749723
-0.746120
-0.749336
-0.749864
-0.747914
-0.750527
-0.749733
-0.748786
-0.748098
-0.749792
-0.749694
-0.750600
-0.749119
-0.749242
-0.749347
-0.750450
-0.744711
-0.748999
-0.749100
-0.749613
-0.748477
-0.748777
-0.747867
-0.748382
-0.747856
-0.747314
-0.746947
-0.747481
-0.746351
-0.746925
-0.745977
-0.746311
-0.745219
-0.745509
-0.744013
-0.744323
-0.743092
-0.743737
-0.742266
-0.742623
-0.740998
-0.742037
-0.739548
-0.741186
-0.738750
-0.740131
-0.737682
-0.739296
-0.736300
-0.738398
-0.735863
-0.738222
-0.735393
-0.737879
-0.735281
-0.737839
-0.735506
-0.737874
-0.735704
-0.738302
-0.736281
-0.738483
-0.736947
-0.739341
-0.737706
-0.739815
-0.738472
-0.740987
-0.739559
-0.741768
-0.740757
-0.742351
-0.741813
-0.743330
-0.742774
-0.744136
-0.743742
-0.745348
-0.744663
-0.745953
-0.746809
-0.749521
-0.748459
-0.745494
-0.749916
-0.743150
-0.744253
-0.735895
-0.750207
-0.733242
-0.740834
-0.748814
-0.738585
-0.732676
-0.747357
-0.737503
-0.743777
-0.741146
-0.740367
-0.743384
-0.734828
-0.740271
-0.746015
-0.750147
-0.748672
-0.744951
-0.748739
-0.750468
-0.748065
-0.751072
-0.745034
-0.745768
-0.745156
-0.750700
-0.751233
-0.749530
-0.750661
-0.744605
-0.746283
-0.745304
-0.741151
-0.747800
-0.739836
-0.741982
-0.743610
-0.747578
-0.749498
-0.746568
-0.747068
-0.746805
-0.742567
-0.743290
-0.745239
-0.741490
-0.747556
-0.744357
-0.746072
-0.747266
-0.742781
-0.747312
-0.740429
-0.746312
-0.745649
-0.750204
-0.750089
-0.750520
-0.750080
-0.749828
-0.750024
-0.747073
-0.748567
-0.748667
-0.748157
-0.750856
-0.750735
-0.750936
-0.749112
-0.747516
-0.743659
-0.747213
-0.746686
-0.746609
-0.745453
-0.739810
-0.737250
-0.735641
-0.734033
-0.738671
-0.740259
-0.737583
-0.737327
-0.742942
-0.744295
-0.734252
-0.732512
-0.730096
-0.729123
-0.731433
-0.733664
-0.734946
-0.730451
-0.729680
-0.726556
-0.726255
-0.729425
-0.732616
-0.732614
-0.741447
-0.742675
-0.740412
-0.742001
-0.741515
-0.739802
-0.739785
-0.741216
-0.740791
-0.741932
-0.741692
-0.739998
-0.742289
-0.742900
-0.733741
-0.731251
-0.730661
-0.732292
-0.728554
-0.732577
-0.729471
-0.733981
-0.733136
-0.735898
-0.729697
-0.726778
-0.725866
-0.729127
-0.744656
-0.744924
-0.744376
-0.742973
-0.745386
-0.746018
-0.746023
-0.746680
-0.748020
-0.746693
-0.746704
-0.739890
-0.737515
-0.739809
-0.736682
-0.737131
-0.738649
-0.740683
-0.741588
-0.738922
-0.742394
-0.742955
-0.742931
-0.741144
-0.744699
-0.744903
-0.747842
-0.748022
-0.748912
-0.749099
-0.748896
-0.748974
-0.745135
-0.748225
-0.749615
-0.750084
-0.749299
-0.748771
-0.747971
-0.747360
-0.748086
-0.746745
-0.745050
-0.746264
-0.744353
-0.745730
-0.747753
-0.748949
-0.744014
-0.748926
-0.750331
-0.750408
-0.749393
-0.749993
-0.750814
-0.750774
-0.746417
-0.748989
-0.748268
-0.743753
-0.748485
-0.744409
-0.746128
-0.750397
-0.747861
-0.745976
-0.750849
-0.750172
-0.749666
-0.750559
-0.750792
-0.751747
-0.750928
-0.751750
-0.750485
-0.747750
-0.745023
-0.747810
-0.749189
-0.749167
-0.748421
-0.746999
-0.743750
-0.748618
-0.745188
-0.749084
-0.749264
-0.751143
-0.751991
-0.751042
-0.745664
-0.747233
-0.751063
-0.748565
-0.747311
-0.751041
-0.750340
-0.749351
-0.750601
-0.745669
-0.748508
-0.750889
-0.749850
-0.750965
-0.749873
-0.749024
-0.746085
-0.751263
-0.751729
-0.750202
-0.751468
-0.749114
-0.744083
-0.746565
-0.749431
-0.749796
-0.747403
-0.749066
-0.749846
-0.749120
-0.751494
-0.751154
-0.748755
-0.749212
-0.747037
-0.748730
-0.750302
-0.748777
-0.745311
-0.750720
-0.744108
-0.750800
-0.751329
-0.750236
-0.742146
-0.747537
-0.749383
-0.748840
-0.749130
-0.745443
-0.745803
-0.749568
-0.745087
-0.747865
-0.743476
-0.748626
-0.746670
-0.744457
-0.748036
-0.748553
-0.744776
-0.742136
-0.743446
-0.748882
-0.749328
-0.743338
-0.746095
-0.747919
-0.749800
-0.741335
-0.746318
-0.749138
-0.742960
-0.746000
-0.749798
-0.744799
-0.731356
-0.741544
-0.743271
-0.748396
-0.743286
-0.742458
-0.744208
-0.743322
-0.747256
-0.745394
-0.745962
-0.747563
-0.744448
-0.749399
-0.751054
-0.744301
-0.747924
-0.745760
-0.745773
-0.743561
-0.749340
-0.750621
-0.744826
-0.741690
-0.751282
-0.750443
-0.742175
-0.750324
-0.738619
-0.749209
-0.750580
-0.747402
-0.750034
-0.739383
-0.751379
-0.735142
-0.751250
-0.751177
-0.736457
-0.744910
-0.731037
-0.751442
-0.750996
-0.732965
-0.726987
-0.751170
-0.726138
-0.747313
-0.751534
-0.728503
-0.750953
-0.722623
-0.748137
-0.722148
-0.726766
-0.751792
-0.751418
-0.749441
-0.721710
-0.751258
-0.741745
-0.735811
-0.722552
-0.744996
-0.750077
-0.743600
-0.748442
-0.749793
-0.751493
-0.728704
-0.748177
-0.751359
-0.750668
-0.724981
-0.751502
-0.734446
-0.751957
-0.746167
-0.750534
-0.745787
-0.751195
-0.746784
-0.749043
-0.750770
-0.746599
-0.749592
-0.751528
-0.734767
-0.740124
-0.748666
-0.736749
-0.734833
-0.746587
-0.750332
-0.748556
-0.751973
-0.736582
-0.745344
-0.754735
-0.765395
-0.751076
-0.754326
-0.763953
-0.754167
-0.762875
-0.767553
-0.768746
-0.747838
-0.758092
-0.767643
-0.751542
-0.757125
-0.761324
-0.768515
-0.783860
-0.763475
-0.763230
-0.767649
-0.777760
-0.770729
-0.781407
-0.745526
-0.770033
-0.773541
-0.771103
-0.781191
-0.771716
-0.782527
-0.770155
-0.771398
-0.747287
-0.745512
-0.782487
-0.773360
-0.778078
-0.762939
-0.741679
-0.521959
-0.749858
-0.673526
-0.755051
-0.124280
-0.124280
-0.763579
-0.747437
-0.745302
-0.737557
-0.742298
-0.744293
-0.749481
-0.744126
-0.749202
-0.745311
-0.749990
-0.750273
-0.749782
-0.746454
-0.749122
-0.124280
-0.751597
-0.124280
-0.124280
-0.687154
-0.731807
-0.124280
-0.124280
-0.755857
-0.124280
-0.763817
-0.740190
-0.124280
-0.766444
-0.741526
-0.749947
-0.748038
-0.124280
-0.754795
-0.743951
-0.736852
-0.750599
-0.745039
-0.746393
-0.748123
-0.745508
-0.729219
-0.744991
-0.733201
-0.726508
-0.742205
-0.609959
-0.670849
-0.440183
-0.526655
-0.457420
-0.451604
-0.733886
-0.735810
-0.524622
-0.124280
-0.731656
-0.378520
-0.734759
-0.498150
-0.124280
-0.124280
-0.473432
-0.124280
-0.124280
-0.124280
-0.124280
-0.763883
-0.695713
-0.743146
-0.741735
-0.738829
-0.654059
-0.736492
-0.747557
-0.124280
-0.587742
-0.124280
-0.709202
-0.572652
-0.124280
-0.692086
-0.683374
-0.716410
-0.754195
-0.124280
-0.124280
-0.750376
-0.169977
-0.124280
-0.751039
-0.752266
-0.743459
-0.740334
-0.750780
-0.762025
-0.752093
-0.762938
-0.748086
-0.747224
-0.729107
-0.738471
-0.725079
-0.713813
-0.691310
-0.671973
-0.689415
-0.732725
-0.630784
-0.665143
-0.124280
-0.537780
-0.723327
-0.501445
-0.524115
-0.124280
-0.715428
-0.669125
-0.581202
-0.531028
-0.716169
-0.124280
-0.622756
-0.636259
-0.524244
-0.714163
-0.638631
-0.628329
-0.631616
-0.628011
-0.718999
-0.715080
-0.638931
-0.622659
-0.662690
-0.725183
-0.656582
-0.657296
-0.615859
-0.657406
-0.663188
-0.652929
-0.683119
-0.740549
-0.734337
-0.740515
-0.700686
-0.704943
-0.715573
-0.728828
-0.743020
-0.723583
-0.746703
-0.742267
-0.760322
-0.738802
-0.751482
-0.741822
-0.519333
-0.738135
-0.754653
-0.743869
-0.693276
-0.124280
-0.756053